     Message from routine get_command_line:
     unexpected argument # 2     :-inp

     Program PWSCF v.6.0 starts on 20May2021 at 15:23:28 

     This program is part of the open-source Quantum ESPRESSO suite
     for quantum simulation of materials; please cite
         "P. Giannozzi et al., J. Phys.:Condens. Matter 21 395502 (2009);
          URL http://www.quantum-espresso.org", 
     in publications or presentations arising from this work. More details at
     http://www.quantum-espresso.org/quote

     Parallel version (MPI), running on     1 processors
     Waiting for input...
     Reading input from standard input

     Current dimensions of program PWSCF are:
     Max number of different atomic species (ntypx) = 10
     Max number of k-points (npk) =  40000
     Max angular momentum in pseudopotentials (lmaxx) =  3

     gamma-point specific algorithms are used

     Subspace diagonalization in iterative solution of the eigenvalue problem:
     a serial algorithm will be used

     Message from routine setup:
     no reason to have ecutrho>4*ecutwfc

     G-vector sticks info
     --------------------
     sticks:   dense  smooth     PW     G-vecs:    dense   smooth      PW
     Sum       26085   13053   3265              2629107   929743  116125



     bravais-lattice index     =            6
     lattice parameter (alat)  =      32.0000  a.u.
     unit-cell volume          =   27197.4400 (a.u.)^3
     number of atoms/cell      =           12
     number of atomic types    =            2
     number of electrons       =        30.00
     number of Kohn-Sham states=           15
     kinetic-energy cutoff     =      40.0000  Ry
     charge density cutoff     =     320.0000  Ry
     convergence threshold     =      1.0E-10
     mixing beta               =       0.7000
     number of iterations used =            8  plain     mixing
     Exchange-correlation      = PBE ( 1  4  3  4 0 0)

     celldm(1)=  32.000000  celldm(2)=   0.000000  celldm(3)=   0.830000
     celldm(4)=   0.000000  celldm(5)=   0.000000  celldm(6)=   0.000000

     crystal axes: (cart. coord. in units of alat)
               a(1) = (   1.000000   0.000000   0.000000 )  
               a(2) = (   0.000000   1.000000   0.000000 )  
               a(3) = (   0.000000   0.000000   0.830000 )  

     reciprocal axes: (cart. coord. in units 2 pi/alat)
               b(1) = (  1.000000  0.000000  0.000000 )  
               b(2) = (  0.000000  1.000000  0.000000 )  
               b(3) = (  0.000000  0.000000  1.204819 )  


     PseudoPot. # 1 for C  read from file:
     /home/maestro/Downloads/nc-sr-04_pbe/C.upf
     MD5 check sum: 34a24e64c0a39f27c6c36b90a16ac686
     Pseudo is Norm-conserving + core correction, Zval =  4.0
     Generated using ONCVPSP code by D. R. Hamann
     Using radial grid of 1248 points,  4 beta functions with: 
                l(1) =   0
                l(2) =   0
                l(3) =   1
                l(4) =   1

     PseudoPot. # 2 for H  read from file:
     /home/maestro/Downloads/nc-sr-04_pbe/H.upf
     MD5 check sum: e96aa7e3e4a958db16958554ea960e2a
     Pseudo is Norm-conserving, Zval =  1.0
     Generated using ONCVPSP code by D. R. Hamann
     Using radial grid of 1166 points,  3 beta functions with: 
                l(1) =   0
                l(2) =   0
                l(3) =   1

     atomic species   valence    mass     pseudopotential
        C              4.00    12.01070     C ( 1.00)
        H              1.00     1.00784     H ( 1.00)

     No symmetry found



   Cartesian axes

     site n.     atom                  positions (alat units)
         1           C   tau(   1) = (   0.3327634   0.3733372   0.2952697  )
         2           C   tau(   2) = (   0.4043485   0.4972565   0.2952697  )
         3           C   tau(   3) = (   0.4759200   0.4559443   0.2952697  )
         4           C   tau(   4) = (   0.4759147   0.3733258   0.2952697  )
         5           C   tau(   5) = (   0.4043360   0.3320243   0.2952697  )
         6           C   tau(   6) = (   0.3327698   0.4559561   0.2952697  )
         7           H   tau(   7) = (   0.4043556   0.5624374   0.2952697  )
         8           H   tau(   8) = (   0.5323692   0.4885290   0.2952697  )
         9           H   tau(   9) = (   0.5323614   0.3407364   0.2952697  )
        10           H   tau(  10) = (   0.4043317   0.2668437   0.2952697  )
        11           H   tau(  11) = (   0.2763126   0.3407557   0.2952697  )
        12           H   tau(  12) = (   0.2763252   0.4885497   0.2952697  )

     number of k points=     1
                       cart. coord. in units 2pi/alat
        k(    1) = (   0.0000000   0.0000000   0.0000000), wk =   2.0000000

     Dense  grid:  1314554 G-vectors     FFT dimensions: ( 192, 192, 160)

     Smooth grid:   464872 G-vectors     FFT dimensions: ( 135, 135, 108)

     Estimated max dynamical RAM per process >    1080.80Mb

     Initial potential from superposition of free atoms
     Check: negative starting charge=   -0.000482

     starting charge   29.99968, renormalised to   30.00000

     negative rho (up, down):  4.822E-04 0.000E+00
     Starting wfc are   30 randomized atomic wfcs

     total cpu time spent up to now is       62.7 secs

     per-process dynamical memory:   669.2 Mb

     Self-consistent Calculation

     iteration #  1     ecut=    40.00 Ry     beta=0.70
     Davidson diagonalization with overlap
     ethr =  1.00E-02,  avg # of iterations =  2.0

     negative rho (up, down):  4.116E-05 0.000E+00

     total cpu time spent up to now is       81.1 secs

     total energy              =     -78.66572696 Ry
     Harris-Foulkes estimate   =     -79.53920971 Ry
     estimated scf accuracy    <       1.33971105 Ry

     iteration #  2     ecut=    40.00 Ry     beta=0.70
     Davidson diagonalization with overlap
     ethr =  4.47E-03,  avg # of iterations =  2.0

     negative rho (up, down):  3.483E-04 0.000E+00

     total cpu time spent up to now is       98.2 secs

     total energy              =     -78.92105371 Ry
     Harris-Foulkes estimate   =     -79.16606288 Ry
     estimated scf accuracy    <       0.41506969 Ry

     iteration #  3     ecut=    40.00 Ry     beta=0.70
     Davidson diagonalization with overlap
     ethr =  1.38E-03,  avg # of iterations =  2.0

     negative rho (up, down):  3.193E-07 0.000E+00

     total cpu time spent up to now is      118.2 secs

     total energy              =     -79.02894357 Ry
     Harris-Foulkes estimate   =     -79.04052344 Ry
     estimated scf accuracy    <       0.02191363 Ry

     iteration #  4     ecut=    40.00 Ry     beta=0.70
     Davidson diagonalization with overlap
     ethr =  7.30E-05,  avg # of iterations =  2.0

     total cpu time spent up to now is      135.0 secs

     total energy              =     -79.03375392 Ry
     Harris-Foulkes estimate   =     -79.03379194 Ry
     estimated scf accuracy    <       0.00017936 Ry

     iteration #  5     ecut=    40.00 Ry     beta=0.70
     Davidson diagonalization with overlap
     ethr =  5.98E-07,  avg # of iterations =  3.0

     negative rho (up, down):  3.983E-08 0.000E+00

     total cpu time spent up to now is      155.2 secs

     total energy              =     -79.03389486 Ry
     Harris-Foulkes estimate   =     -79.03391823 Ry
     estimated scf accuracy    <       0.00005313 Ry

     iteration #  6     ecut=    40.00 Ry     beta=0.70
     Davidson diagonalization with overlap
     ethr =  1.77E-07,  avg # of iterations =  2.0

     total cpu time spent up to now is      172.4 secs

     total energy              =     -79.03390488 Ry
     Harris-Foulkes estimate   =     -79.03390491 Ry
     estimated scf accuracy    <       0.00000041 Ry

     iteration #  7     ecut=    40.00 Ry     beta=0.70
     Davidson diagonalization with overlap
     ethr =  1.35E-09,  avg # of iterations =  3.0

     total cpu time spent up to now is      191.6 secs

     total energy              =     -79.03390502 Ry
     Harris-Foulkes estimate   =     -79.03390503 Ry
     estimated scf accuracy    <       0.00000007 Ry

     iteration #  8     ecut=    40.00 Ry     beta=0.70
     Davidson diagonalization with overlap
     ethr =  2.41E-10,  avg # of iterations =  2.0

     total cpu time spent up to now is      210.3 secs

     total energy              =     -79.03390502 Ry
     Harris-Foulkes estimate   =     -79.03390503 Ry
     estimated scf accuracy    <          3.0E-09 Ry

     iteration #  9     ecut=    40.00 Ry     beta=0.70
     Davidson diagonalization with overlap
     ethr =  1.01E-11,  avg # of iterations =  3.0

     total cpu time spent up to now is      229.8 secs

     total energy              =     -79.03390502 Ry
     Harris-Foulkes estimate   =     -79.03390502 Ry
     estimated scf accuracy    <          8.6E-10 Ry

     iteration # 10     ecut=    40.00 Ry     beta=0.70
